8
Lattice="4.28385299550064 1.498388058e-07 2.33365673e-07 0.1713542845763327 4.280424910813838 2.588514838e-07 2.4371978e-07 2.586443224e-07 4.2838533797326" Properties=species:S:1:pos:R:3:initial_charges:R:1:forces:R:3 energy=-47.98462895481147 stress="0.0003300127722067249 0.015734795239796144 4.7070103828286646e-08 0.015734795239796144 -0.0009297168242424842 4.9547595402354746e-08 4.7070103828286646e-08 4.9547595402354746e-08 0.0007268958629430506" free_energy=-47.98462895481147 pbc="T T T"
Co      -0.00000000       0.00000000       0.00000000       2.00000000      -0.00000000      -0.00000000      -0.00000000
O        2.22760376       2.14021266       2.14192694      -2.00000000       0.00000000      -0.00000000      -0.00000000
Co       2.22760364       2.14021253       0.00000025       2.00000000       0.00000000       0.00000000      -0.00000000
O        0.00000012       0.00000013       2.14192669      -2.00000000      -0.00000000      -0.00000000       0.00000000
Co       2.14192662       0.00000020       2.14192681       2.00000000       0.00000000      -0.00000000       0.00000000
O        0.08567714       2.14021246       0.00000013      -2.00000000       0.00000000       0.00000000      -0.00000000
Co       0.08567726       2.14021258       2.14192682       2.00000000      -0.00000000       0.00000000       0.00000000
O        2.14192650       0.00000007       0.00000012      -2.00000000       0.00000000      -0.00000000       0.00000000
