8
Lattice="4.32647944226955 1.499588209e-07 2.33365673e-07 1.514510162e-07 4.283853365437029 2.588514838e-07 2.356878247e-07 2.588514865e-07 4.2838533797326" Properties=species:S:1:pos:R:3:initial_charges:R:1:forces:R:3 energy=-48.00430346936541 stress="0.012588153455130924 2.7387363042118752e-08 4.2620162481683986e-08 2.7387363042118752e-08 0.005924382408779499 4.8439688598697196e-08 4.2620162481683986e-08 4.8439688598697196e-08 0.005924384735623409" free_energy=-48.00430346936541 pbc="T T T"
Co      -0.00000000       0.00000000       0.00000000       2.00000000      -0.00000000      -0.00000000       0.00000000
O        2.16323991       2.14192689       2.14192694      -2.00000000       0.00000000      -0.00000000      -0.00000000
Co       2.16323980       2.14192676       0.00000025       2.00000000       0.00000000       0.00000000       0.00000000
O        0.00000012       0.00000013       2.14192669      -2.00000000      -0.00000000      -0.00000000      -0.00000000
Co       2.16323984       0.00000020       2.14192681       2.00000000       0.00000000       0.00000000       0.00000000
O        0.00000008       2.14192668       0.00000013      -2.00000000       0.00000000       0.00000000      -0.00000000
Co       0.00000019       2.14192681       2.14192682       2.00000000      -0.00000000       0.00000000       0.00000000
O        2.16323972       0.00000007       0.00000012      -2.00000000      -0.00000000      -0.00000000      -0.00000000
