8
Lattice="4.283852989502287 1.536620655e-07 2.33365673e-07 1.499588516e-07 4.389643452422357 2.588514838e-07 2.333657205e-07 2.652438438e-07 4.2838533797326" Properties=species:S:1:pos:R:3:initial_charges:R:1:forces:R:3 energy=-47.97973301552878 stress="0.014423090995309366 2.722989892391794e-08 4.5071528067725145e-08 2.722989892391794e-08 0.02952582588687722 4.700287669448299e-08 4.5071528067725145e-08 4.700287669448299e-08 0.014423152791028848" free_energy=-47.97973301552878 pbc="T T T"
Co      -0.00000000       0.00000000       0.00000000       2.00000000      -0.00000000       0.00000000       0.00000000
O        2.14192669       2.19482194       2.14192694      -2.00000000       0.00000000      -0.00000000      -0.00000000
Co       2.14192657       2.19482180       0.00000025       2.00000000       0.00000000       0.00000000      -0.00000000
O        0.00000012       0.00000013       2.14192669      -2.00000000      -0.00000000      -0.00000000      -0.00000000
Co       2.14192661       0.00000021       2.14192681       2.00000000       0.00000000      -0.00000000       0.00000000
O        0.00000007       2.19482173       0.00000013      -2.00000000       0.00000000      -0.00000000      -0.00000000
Co       0.00000019       2.19482186       2.14192682       2.00000000      -0.00000000       0.00000000       0.00000000
O        2.14192649       0.00000008       0.00000012      -2.00000000       0.00000000      -0.00000000      -0.00000000
