8
Lattice="4.3896430672038775 1.499588209e-07 2.33365673e-07 1.536620969e-07 4.283853365437029 2.588514838e-07 2.391287049e-07 2.588514865e-07 4.2838533797326" Properties=species:S:1:pos:R:3:initial_charges:R:1:forces:R:3 energy=-47.97973312229413 stress="0.029525778304467225 2.7229900028979886e-08 4.237511841987718e-08 2.7229900028979886e-08 0.014423152535971831 4.999376064153824e-08 4.237511841987718e-08 4.999376064153824e-08 0.01442315479977216" free_energy=-47.97973312229413 pbc="T T T"
Co      -0.00000000       0.00000000       0.00000000       2.00000000      -0.00000000      -0.00000000       0.00000000
O        2.19482173       2.14192689       2.14192694      -2.00000000       0.00000000      -0.00000000      -0.00000000
Co       2.19482161       2.14192676       0.00000025       2.00000000       0.00000000       0.00000000       0.00000000
O        0.00000012       0.00000013       2.14192669      -2.00000000      -0.00000000       0.00000000      -0.00000000
Co       2.19482165       0.00000020       2.14192681       2.00000000      -0.00000000      -0.00000000       0.00000000
O        0.00000008       2.14192668       0.00000013      -2.00000000       0.00000000       0.00000000      -0.00000000
Co       0.00000020       2.14192681       2.14192682       2.00000000      -0.00000000       0.00000000       0.00000000
O        2.19482153       0.00000007       0.00000012      -2.00000000       0.00000000      -0.00000000      -0.00000000
