8
Lattice="4.283852989502287 1.499588209e-07 2.356877767e-07 1.499588516e-07 4.283853365437029 2.614271839e-07 2.333657205e-07 2.588514865e-07 4.326479836382847" Properties=species:S:1:pos:R:3:initial_charges:R:1:forces:R:3 energy=-48.004303421169055 stress="0.005924320572171249 2.806227872169444e-08 4.262016195051775e-08 2.806227872169444e-08 0.005924381761971732 4.7274682563003294e-08 4.262016195051775e-08 4.7274682563003294e-08 0.012588212016600174" free_energy=-48.004303421169055 pbc="T T T"
Co      -0.00000000       0.00000000       0.00000000       2.00000000      -0.00000000      -0.00000000       0.00000000
O        2.14192669       2.14192689       2.16324017      -2.00000000       0.00000000      -0.00000000      -0.00000000
Co       2.14192657       2.14192676       0.00000025       2.00000000       0.00000000       0.00000000       0.00000000
O        0.00000012       0.00000013       2.16323992      -2.00000000      -0.00000000      -0.00000000      -0.00000000
Co       2.14192661       0.00000020       2.16324004       2.00000000       0.00000000       0.00000000      -0.00000000
O        0.00000007       2.14192668       0.00000013      -2.00000000       0.00000000      -0.00000000       0.00000000
Co       0.00000019       2.14192681       2.16324005       2.00000000      -0.00000000       0.00000000      -0.00000000
O        2.14192649       0.00000007       0.00000012      -2.00000000       0.00000000      -0.00000000       0.00000000
