8
Lattice="4.283852989502287 1.499588209e-07 2.391286561e-07 1.499588516e-07 4.283853365437029 2.65243841e-07 2.333657205e-07 2.588514865e-07 4.389643467070958" Properties=species:S:1:pos:R:3:initial_charges:R:1:forces:R:3 energy=-47.97973301146885 stress="0.014423090918923569 2.8962590272542086e-08 4.2375116620215316e-08 2.8962590272542086e-08 0.014423150450842777 4.7002876600231946e-08 4.2375116620215316e-08 4.7002876600231946e-08 0.029525827696276655" free_energy=-47.97973301146885 pbc="T T T"
Co      -0.00000000       0.00000000       0.00000000       2.00000000      -0.00000000      -0.00000000      -0.00000000
O        2.14192669       2.14192689       2.19482199      -2.00000000       0.00000000      -0.00000000      -0.00000000
Co       2.14192657       2.14192676       0.00000025       2.00000000       0.00000000       0.00000000      -0.00000000
O        0.00000012       0.00000013       2.19482173      -2.00000000      -0.00000000      -0.00000000      -0.00000000
Co       2.14192661       0.00000020       2.19482185       2.00000000       0.00000000       0.00000000       0.00000000
O        0.00000007       2.14192668       0.00000013      -2.00000000       0.00000000       0.00000000      -0.00000000
Co       0.00000019       2.14192681       2.19482187       2.00000000      -0.00000000       0.00000000       0.00000000
O        2.14192649       0.00000007       0.00000012      -2.00000000       0.00000000      -0.00000000      -0.00000000
