8
Lattice="4.283852998836914 1.499588209e-07 2.331789057e-07 1.603129109e-07 4.283853365437029 2.586443197e-07 0.1713543685550245 2.588514865e-07 4.280424925097968" Properties=species:S:1:pos:R:3:initial_charges:R:1:forces:R:3 energy=-47.98462890691233 stress="0.0003300138222162043 3.165788356465759e-08 0.0157348105492652 3.165788356465759e-08 0.0007268953426714364 4.889145955671554e-08 0.0157348105492652 4.889145955671554e-08 -0.0009297146324451128" free_energy=-47.98462890691233 pbc="T T T"
Co      -0.00000000       0.00000000       0.00000000       2.00000000      -0.00000000      -0.00000000       0.00000000
O        2.22760376       2.14192689       2.14021271      -2.00000000       0.00000000      -0.00000000      -0.00000000
Co       2.14192658       2.14192676       0.00000025       2.00000000       0.00000000       0.00000000       0.00000000
O        0.08567718       0.00000013       2.14021246      -2.00000000      -0.00000000      -0.00000000      -0.00000000
Co       2.22760368       0.00000020       2.14021258       2.00000000       0.00000000      -0.00000000       0.00000000
O        0.00000008       2.14192668       0.00000013      -2.00000000      -0.00000000      -0.00000000      -0.00000000
Co       0.08567726       2.14192681       2.14021259       2.00000000      -0.00000000       0.00000000       0.00000000
O        2.14192650       0.00000007       0.00000012      -2.00000000      -0.00000000      -0.00000000      -0.00000000
