8
Lattice="4.28385300443769 1.499588209e-07 2.328872497e-07 1.665253465e-07 4.283853365437029 2.58320812e-07 0.2741668496686069 2.588514865e-07 4.275071045672977" Properties=species:S:1:pos:R:3:initial_charges:R:1:forces:R:3 energy=-47.94577094006611 stress="0.000513370342079388 3.4244077422267835e-08 0.025292640587289375 3.4244077422267835e-08 0.0015189815310136473 4.991677614165161e-08 0.025292640587289375 4.991677614165161e-08 -0.002730673921919747" free_energy=-47.94577094006611 pbc="T T T"
Co      -0.00000000       0.00000000       0.00000000       2.00000000      -0.00000000       0.00000000       0.00000000
O        2.27901001       2.14192689       2.13753577      -2.00000000       0.00000000      -0.00000000      -0.00000000
Co       2.14192659       2.14192676       0.00000025       2.00000000       0.00000000       0.00000000       0.00000000
O        0.13708342       0.00000013       2.13753552      -2.00000000      -0.00000000       0.00000000      -0.00000000
Co       2.27900993       0.00000020       2.13753564       2.00000000       0.00000000       0.00000000       0.00000000
O        0.00000008       2.14192668       0.00000013      -2.00000000      -0.00000000      -0.00000000      -0.00000000
Co       0.13708351       2.14192681       2.13753565       2.00000000      -0.00000000       0.00000000       0.00000000
O        2.14192650       0.00000007       0.00000012      -2.00000000       0.00000000      -0.00000000      -0.00000000
