8
Lattice="4.283852989502287 1.592934478e-07 2.331789057e-07 1.499588516e-07 4.283853375791088 2.586443197e-07 2.333657205e-07 0.1713543940407904 4.280424925097968" Properties=species:S:1:pos:R:3:initial_charges:R:1:forces:R:3 energy=-47.98462889927161 stress="0.0007268330796380375 3.1269181238092036e-08 4.419390392238234e-08 3.1269181238092036e-08 0.00033007631328782277 0.01573481077390671 4.419390392238234e-08 0.01573481077390671 -0.0009297144190329083" free_energy=-47.98462889927161 pbc="T T T"
Co      -0.00000000       0.00000000       0.00000000       2.00000000      -0.00000000       0.00000000       0.00000000
O        2.14192669       2.22760396       2.14021271      -2.00000000       0.00000000      -0.00000000      -0.00000000
Co       2.14192657       2.14192677       0.00000025       2.00000000      -0.00000000       0.00000000       0.00000000
O        0.00000012       0.08567720       2.14021246      -2.00000000      -0.00000000      -0.00000000      -0.00000000
Co       2.14192661       0.08567728       2.14021258       2.00000000       0.00000000       0.00000000       0.00000000
O        0.00000007       2.14192669       0.00000013      -2.00000000       0.00000000      -0.00000000      -0.00000000
Co       0.00000019       2.22760388       2.14021259       2.00000000      -0.00000000       0.00000000       0.00000000
O        2.14192649       0.00000008       0.00000012      -2.00000000       0.00000000      -0.00000000      -0.00000000
