8
Lattice="4.2838529990996514 1.496513901e-07 2.33365673e-07 0.2741667653468214 4.275071031406714 2.588514838e-07 2.499322157e-07 2.583208147e-07 4.2838533797326" Properties=species:S:1:pos:R:3:initial_charges:R:1:forces:R:3 energy=-47.945771016805516 stress="0.0005133686169700585 0.02529262506281722 4.9845042045387355e-08 0.02529262506281722 -0.0027306760180675913 5.091643976144601e-08 4.9845042045387355e-08 5.091643976144601e-08 0.0015189809402889462" free_energy=-47.945771016805516 pbc="T T T"
Co      -0.00000000       0.00000000       0.00000000       2.00000000      -0.00000000      -0.00000000       0.00000000
O        2.27901001       2.13753572       2.14192694      -2.00000000       0.00000000      -0.00000000      -0.00000000
Co       2.27900988       2.13753559       0.00000025       2.00000000       0.00000000       0.00000000      -0.00000000
O        0.00000012       0.00000013       2.14192669      -2.00000000      -0.00000000      -0.00000000      -0.00000000
Co       2.14192662       0.00000020       2.14192681       2.00000000       0.00000000      -0.00000000       0.00000000
O        0.13708338       2.13753552       0.00000013      -2.00000000       0.00000000       0.00000000       0.00000000
Co       0.13708351       2.13753564       2.14192682       2.00000000      -0.00000000       0.00000000       0.00000000
O        2.14192650       0.00000007       0.00000012      -2.00000000       0.00000000      -0.00000000       0.00000000
