8
Lattice="4.283852989502287 1.514509852e-07 2.33365673e-07 1.499588516e-07 4.3264798219450284 2.588514838e-07 2.333657205e-07 2.614271866e-07 4.2838533797326" Properties=species:S:1:pos:R:3:initial_charges:R:1:forces:R:3 energy=-48.00430342293467 stress="0.005924320595866277 2.7387362667095067e-08 4.3670465214458173e-08 2.7387362667095067e-08 0.012588209871282565 4.727468260725076e-08 4.3670465214458173e-08 4.727468260725076e-08 0.005924384112510694" free_energy=-48.00430342293467 pbc="T T T"
Co      -0.00000000       0.00000000       0.00000000       2.00000000      -0.00000000       0.00000000       0.00000000
O        2.14192669       2.16324012       2.14192694      -2.00000000       0.00000000      -0.00000000      -0.00000000
Co       2.14192657       2.16323999       0.00000025       2.00000000      -0.00000000       0.00000000      -0.00000000
O        0.00000012       0.00000013       2.14192669      -2.00000000      -0.00000000      -0.00000000      -0.00000000
Co       2.14192661       0.00000021       2.14192681       2.00000000       0.00000000      -0.00000000       0.00000000
O        0.00000007       2.16323991       0.00000013      -2.00000000       0.00000000      -0.00000000      -0.00000000
Co       0.00000019       2.16324004       2.14192682       2.00000000      -0.00000000       0.00000000       0.00000000
O        2.14192649       0.00000008       0.00000012      -2.00000000       0.00000000      -0.00000000      -0.00000000
