8
Lattice="4.283852989502287 1.64894224e-07 2.328872497e-07 1.499588516e-07 4.283853382003524 2.58320812e-07 2.333657205e-07 0.2741668751543729 4.275071045672977" Properties=species:S:1:pos:R:3:initial_charges:R:1:forces:R:3 energy=-47.94577093449792 stress="0.0015189188209984866 3.363415705389959e-08 4.517908131713264e-08 3.363415705389959e-08 0.0005134329753449809 0.025292638216301788 4.517908131713264e-08 0.025292638216301788 -0.002730673105537495" free_energy=-47.94577093449792 pbc="T T T"
Co      -0.00000000       0.00000000       0.00000000       2.00000000      -0.00000000      -0.00000000       0.00000000
O        2.14192669       2.27901021       2.13753577      -2.00000000      -0.00000000      -0.00000000      -0.00000000
Co       2.14192657       2.14192677       0.00000025       2.00000000       0.00000000       0.00000000       0.00000000
O        0.00000012       0.13708344       2.13753552      -2.00000000      -0.00000000      -0.00000000      -0.00000000
Co       2.14192661       0.13708352       2.13753564       2.00000000       0.00000000      -0.00000000       0.00000000
O        0.00000007       2.14192669       0.00000013      -2.00000000       0.00000000      -0.00000000      -0.00000000
Co       0.00000019       2.27901013       2.13753565       2.00000000      -0.00000000       0.00000000       0.00000000
O        2.14192649       0.00000008       0.00000012      -2.00000000       0.00000000      -0.00000000       0.00000000
